/*--------------------------------*- C++ -*----------------------------------*\
| =========                 |                                                 |
| \\      /  F ield         | OpenFOAM: The Open Source CFD Toolbox           |
|  \\    /   O peration     | Version:  v1806                                 |
|   \\  /    A nd           | Web:      www.OpenFOAM.com                      |
|    \\/     M anipulation  |                                                 |
\*---------------------------------------------------------------------------*/
FoamFile
{
    version     2.0;
    format      ascii;
    class       volScalarField;
    location    "0.015";
    object      gradTy;
}
// * * * * * * * * * * * * * * * * * * * * * * * * * * * * * * * * * * * * * //

dimensions      [0 -1 0 1 0 0 0];


internalField   nonuniform List<scalar> 
16
(
0.0221337
0.0304318
0.0501392
0.0886452
0.0534354
0.0734685
0.121045
0.214001
0.0534354
0.0734685
0.121045
0.214001
0.0221337
0.0304318
0.0501392
0.0886452
)
;

boundaryField
{
    frontAndBack
    {
        type            empty;
    }
    top
    {
        type            calculated;
        value           nonuniform List<scalar> 4(0.113845 0.274835 0.274835 0.113845);
    }
    left
    {
        type            calculated;
        value           nonuniform List<scalar> 4(0.0221337 0.0304318 0.0501392 0.0886452);
    }
    bottom
    {
        type            calculated;
        value           nonuniform List<scalar> 4(0.020237 0.0488563 0.0488563 0.020237);
    }
    right
    {
        type            calculated;
        value           nonuniform List<scalar> 4(0.0221337 0.0304318 0.0501392 0.0886452);
    }
}


// ************************************************************************* //
